https://api.github.com/repos/RonnyDo/Wammer
https://api.github.com/repos/gonzalezreal/IndeterminateTypesWithCodable
https://api.github.com/repos/halo-dev/halo-theme-hux
https://api.github.com/repos/Youstart-Labs/SummerTraining2018
https://api.github.com/repos/kazeburo/wsgate-server
https://api.github.com/repos/lunaticmonk/terminal-reminder
https://api.github.com/repos/cristijora/vue-paper-dashboard-nuxt
https://api.github.com/repos/orachide/ansible-role-springboot
https://api.github.com/repos/jianyan74/yii2-websocket
https://api.github.com/repos/roymckenzie/detect-zero-width-characters-chrome-extension
https://api.github.com/repos/WealthWizardsEngineering/kube-vault-auth-init
https://api.github.com/repos/KhaledSaleh/FLIR-human-detection
https://api.github.com/repos/iamscottxu/WebServiceDataProvider
https://api.github.com/repos/oncealong/apk_dex_shell
https://api.github.com/repos/nightroman/PsdKit
https://api.github.com/repos/MarvelWild/WildWorld
https://api.github.com/repos/imWildCat/sogou-translate
https://api.github.com/repos/mustafamuratcoskun/Data-Analiz-Notebooklar
https://api.github.com/repos/eesungkim/NMF-Tensorflow
https://api.github.com/repos/mitchellkrogza/Suspicious.Snooping.Sniffing.Hacking.IP.Addresses
https://api.github.com/repos/sdepy/sdepy
https://api.github.com/repos/mitaki28/pixcaler
https://api.github.com/repos/gluster/gcs
https://api.github.com/repos/xboot/xconch
https://api.github.com/repos/online-pol-ads/FBPoliticalAds
https://api.github.com/repos/LesleyLai/cmake-cpp-boilerplate
https://api.github.com/repos/PacktPublishing/Hands-On-Data-Analysis-with-NumPy-and-pandas
https://api.github.com/repos/andrewjpage/tiptoft
https://api.github.com/repos/davidyeiser/airtable-nextjs-blog
https://api.github.com/repos/lob/litmus
https://api.github.com/repos/Chudleyj/IEX_CPP_API
https://api.github.com/repos/jojoldu/point
https://api.github.com/repos/DJTB/react-furi
https://api.github.com/repos/alan-turing-institute/data-safe-haven
https://api.github.com/repos/originalgrego/FZeroFinal
https://api.github.com/repos/grimmer0125/alphago-zero-tictactoe-js
https://api.github.com/repos/PowerAruba/PowerArubaSW
https://api.github.com/repos/fraigo/vuetify-cordova
https://api.github.com/repos/codetunez/mock-devices
https://api.github.com/repos/Bhai4You/bhai4you
https://api.github.com/repos/lhz960904/movie-api
https://api.github.com/repos/hassio-addons/addon-tautulli
https://api.github.com/repos/Molcas/OpenMolcas
https://api.github.com/repos/RustCrypto/sponges
https://api.github.com/repos/formatlos/dotenv-load
https://api.github.com/repos/YiminCong/Tap-News
https://api.github.com/repos/Automattic/fresh-data
https://api.github.com/repos/NightFarmer/hugo-theme-yelee
https://api.github.com/repos/JamesLMilner/fibrelite
https://api.github.com/repos/TerryZ/v-ztree
https://api.github.com/repos/HeavenSky/webpack-frames
https://api.github.com/repos/txstc55/image_assembling
https://api.github.com/repos/roosta/tmux-pop
https://api.github.com/repos/accessibility/Accessibility-Statement
https://api.github.com/repos/SmallChi/JTNewEnergy
https://api.github.com/repos/JosephNK/flutter_kakao_login
https://api.github.com/repos/LiangJunrong/webpack-study
https://api.github.com/repos/CompuuterJuiced/CSResources
https://api.github.com/repos/AlanShaw-GitHub/MiniMIPS
https://api.github.com/repos/alibaba/jsni
https://api.github.com/repos/ankur287/Recommender-Systems
https://api.github.com/repos/benwebber/tiddlywiki-dnd
https://api.github.com/repos/weizhong1988/Weiz.EventBus
https://api.github.com/repos/OpenXbox/xbox-smartglass-rest-python
https://api.github.com/repos/yuyuyu123/ZCommon
https://api.github.com/repos/streamingnology/HTTP-Server
https://api.github.com/repos/xtudbxk/SEC-tensorflow
https://api.github.com/repos/eventsPortal/rn-fetch-blob
https://api.github.com/repos/pieterbeulque/anonymous-analytics
https://api.github.com/repos/linyimin0812/wechaty-puppet-ioscat
https://api.github.com/repos/shower/cli
https://api.github.com/repos/knowthen/graphql
https://api.github.com/repos/davidfoxcroft/lsj-book
https://api.github.com/repos/dpapavas/alsaloudness
https://api.github.com/repos/foxdonut/seview
https://api.github.com/repos/xiaopangxia/duck_prophet
https://api.github.com/repos/techcentaur/Krivine-Machine
https://api.github.com/repos/lnthach/Mr-SEQL
https://api.github.com/repos/riedlma/topictiling
https://api.github.com/repos/dnewsholme/PasswordState-Management
https://api.github.com/repos/adityajain07/Drone-Images-Mosaicing
https://api.github.com/repos/LionRoar/Head-First-Design-Patterns-PHP
https://api.github.com/repos/tfesenko/Java-Modules-JPMS-CheatSheet
https://api.github.com/repos/the-honey/mpv-gif-generator
https://api.github.com/repos/aehmttw/Tanks
https://api.github.com/repos/streamingnology/HTTP-Server
https://api.github.com/repos/knowthen/graphql
https://api.github.com/repos/shower/cli
https://api.github.com/repos/dpapavas/alsaloudness
https://api.github.com/repos/aehmttw/Tanks
https://api.github.com/repos/stavalfi/lectures
https://api.github.com/repos/sqh17/notes
https://api.github.com/repos/cmdr2/v8-android
https://api.github.com/repos/tfesenko/Java-Modules-JPMS-CheatSheet
https://api.github.com/repos/LionRoar/Head-First-Design-Patterns-PHP
https://api.github.com/repos/the-honey/mpv-gif-generator
https://api.github.com/repos/ServerlessOpsIO/aws-sns-to-slack-publisher
https://api.github.com/repos/cbuijs/ipasn
https://api.github.com/repos/wso2/ansible-sp
https://api.github.com/repos/mattdavis90/node-tado-client
